108
Step: 0, PE = -819.631, KE = 16200
H 0 0 0
H 0.75 0.75 0
H 0 0.75 0.75
H 0.75 0 0.75
H 0 0 1.5
H 0.75 0.75 1.5
H 0 0.75 2.25
H 0.75 0 2.25
H 0 0 3
H 0.75 0.75 3
H 0 0.75 3.75
H 0.75 0 3.75
H 0 1.5 0
H 0.75 2.25 0
H 0 2.25 0.75
H 0.75 1.5 0.75
H 0 1.5 1.5
H 0.75 2.25 1.5
H 0 2.25 2.25
H 0.75 1.5 2.25
H 0 1.5 3
H 0.75 2.25 3
H 0 2.25 3.75
H 0.75 1.5 3.75
H 0 3 0
H 0.75 3.75 0
H 0 3.75 0.75
H 0.75 3 0.75
H 0 3 1.5
H 0.75 3.75 1.5
H 0 3.75 2.25
H 0.75 3 2.25
H 0 3 3
H 0.75 3.75 3
H 0 3.75 3.75
H 0.75 3 3.75
H 1.5 0 0
H 2.25 0.75 0
H 1.5 0.75 0.75
H 2.25 0 0.75
H 1.5 0 1.5
H 2.25 0.75 1.5
H 1.5 0.75 2.25
H 2.25 0 2.25
H 1.5 0 3
H 2.25 0.75 3
H 1.5 0.75 3.75
H 2.25 0 3.75
H 1.5 1.5 0
H 2.25 2.25 0
H 1.5 2.25 0.75
H 2.25 1.5 0.75
H 1.5 1.5 1.5
H 2.25 2.25 1.5
H 1.5 2.25 2.25
H 2.25 1.5 2.25
H 1.5 1.5 3
H 2.25 2.25 3
H 1.5 2.25 3.75
H 2.25 1.5 3.75
H 1.5 3 0
H 2.25 3.75 0
H 1.5 3.75 0.75
H 2.25 3 0.75
H 1.5 3 1.5
H 2.25 3.75 1.5
H 1.5 3.75 2.25
H 2.25 3 2.25
H 1.5 3 3
H 2.25 3.75 3
H 1.5 3.75 3.75
H 2.25 3 3.75
H 3 0 0
H 3.75 0.75 0
H 3 0.75 0.75
H 3.75 0 0.75
H 3 0 1.5
H 3.75 0.75 1.5
H 3 0.75 2.25
H 3.75 0 2.25
H 3 0 3
H 3.75 0.75 3
H 3 0.75 3.75
H 3.75 0 3.75
H 3 1.5 0
H 3.75 2.25 0
H 3 2.25 0.75
H 3.75 1.5 0.75
H 3 1.5 1.5
H 3.75 2.25 1.5
H 3 2.25 2.25
H 3.75 1.5 2.25
H 3 1.5 3
H 3.75 2.25 3
H 3 2.25 3.75
H 3.75 1.5 3.75
H 3 3 0
H 3.75 3.75 0
H 3 3.75 0.75
H 3.75 3 0.75
H 3 3 1.5
H 3.75 3.75 1.5
H 3 3.75 2.25
H 3.75 3 2.25
H 3 3 3
H 3.75 3.75 3
H 3 3.75 3.75
H 3.75 3 3.75
108
Step: 10, PE = -501.707, KE = 15996.4
H 0.0194627 0.000206987 -0.0606501
H 0.728817 0.759395 -0.00525666
H -0.0242246 0.679791 0.833416
H 0.699562 0.0110836 0.766774
H -0.000939869 -0.0611525 1.49858
H 0.688527 0.747475 1.43842
H -0.0302741 0.774443 2.23247
H 0.719054 0.03807 2.25017
H -0.0675105 -0.040149 3.02984
H 0.658383 0.764484 3.05609
H -0.0135227 0.749794 3.71167
H 0.823011 -0.00687184 3.81125
H 0.0312712 1.56754 0.084652
H 0.724753 2.37557 0.0953189
H -0.00123556 2.31883 0.68663
H 0.729014 1.48683 0.658065
H 0.0644026 1.45546 1.5566
H 0.660596 2.27051 1.47402
H 0.126891 2.28639 2.28003
H 0.739562 1.49638 2.25383
H 0.00714991 1.54313 2.97238
H 0.758873 2.27058 2.98435
H -0.0252511 2.34464 3.84429
H 0.756442 1.57708 3.86355
H 0.0494513 2.98522 -0.0560842
H 0.75292 3.74781 -0.101771
H -0.0192746 3.70493 0.786942
H 0.744142 2.87593 0.76757
H 0.0464533 2.91543 1.50604
H 0.728998 3.72891 1.49846
H -0.0401107 3.8369 2.2781
H 0.724507 2.95216 2.26025
H -0.0101472 3.03834 2.95679
H 0.720664 3.76094 2.94678
H 0.0361233 3.72608 3.70223
H 0.787435 2.97804 3.74866
H 1.5333 -0.0162767 0.10071
H 2.27641 0.835097 0.0143098
H 1.48978 0.717169 0.739372
H 2.25841 -0.0620059 0.844337
H 1.54624 -0.0313938 1.43309
H 2.15978 0.757283 1.49711
H 1.50772 0.923982 2.2583
H 2.27514 0.0709696 2.19565
H 1.5588 -0.0127278 2.95223
H 2.20492 0.730466 2.95396
H 1.46491 0.776231 3.79839
H 2.27545 0.055009 3.7077
H 1.55343 1.48399 -0.0423416
H 2.22388 2.28758 -0.0504743
H 1.51149 2.20132 0.822694
H 2.32757 1.43653 0.79936
H 1.39738 1.52599 1.47084
H 2.32329 2.27027 1.47504
H 1.4995 2.18511 2.27215
H 2.212 1.49031 2.2463
H 1.51862 1.48228 3.04165
H 2.25916 2.3067 3.05999
H 1.50327 2.2445 3.72256
H 2.26957 1.51637 3.66187
H 1.55191 2.98429 -0.0158519
H 2.3199 3.68265 -0.0609357
H 1.50776 3.78276 0.729167
H 2.22804 2.91465 0.743933
H 1.54188 2.97028 1.53417
H 2.27041 3.75238 1.5313
H 1.46523 3.76602 2.28375
H 2.30814 3.00042 2.28143
H 1.49452 3.00132 3.00667
H 2.29097 3.7495 2.98867
H 1.47792 3.76939 3.76946
H 2.15222 2.99569 3.81106
H 3.0294 -0.0232431 -0.0304479
H 3.72444 0.776708 0.060782
H 3.03446 0.772317 0.771887
H 3.76121 0.0015415 0.796744
H 2.99538 -0.0556808 1.44098
H 3.794 0.706794 1.47449
H 3.02087 0.750147 2.20174
H 3.80391 0.00804813 2.19461
H 2.92038 -0.04866 2.93369
H 3.78512 0.774924 2.93792
H 2.98749 0.72025 3.72695
H 3.67026 -0.0353597 3.79077
H 3.00774 1.53103 0.026144
H 3.6938 2.20124 0.02206
H 2.97611 2.2048 0.792558
H 3.75459 1.62711 0.788989
H 2.99339 1.57264 1.62896
H 3.84909 2.2582 1.55672
H 2.9434 2.2571 2.33772
H 3.73422 1.54981 2.19281
H 3.05632 1.48992 3.00416
H 3.75887 2.28218 2.92601
H 3.03819 2.34394 3.71339
H 3.68743 1.50742 3.77364
H 2.99223 3.00325 0.0664448
H 3.73463 3.68778 0.00225931
H 2.97525 3.77527 0.739393
H 3.79373 3.05058 0.65929
H 2.98128 3.02783 1.4425
H 3.74392 3.73455 1.42385
H 2.94563 3.65675 2.26323
H 3.77127 2.89012 2.14578
H 2.90832 2.93849 2.95302
H 3.70492 3.67964 2.92878
H 3.06866 3.74495 3.79384
H 3.82524 2.93584 3.87768
108
Step: 20, PE = 1831.11, KE = 13905.5
H 0.0354791 -0.0118565 -0.114564
H 0.71486 0.756268 -0.0109979
H -0.0485516 0.605739 0.910548
H 0.648115 0.0245627 0.794647
H -0.009559 -0.124311 1.49049
H 0.628149 0.743308 1.37454
H -0.0596161 0.803237 2.22142
H 0.686528 0.0803105 2.24734
H -0.138349 -0.0765948 3.05529
H 0.573487 0.777249 3.1119
H -0.0236429 0.75266 3.68007
H 0.891151 -0.016123 3.8782
H 0.0569782 1.63793 0.159484
H 0.710875 2.49312 0.175169
H -0.00492561 2.38529 0.622816
H 0.702025 1.47563 0.5742
H 0.138174 1.41678 1.60891
H 0.574808 2.27035 1.46026
H 0.245694 2.32609 2.3118
H 0.71742 1.49688 2.25541
H 0.0147414 1.58674 2.9453
H 0.768833 2.28233 2.9769
H -0.048444 2.42386 3.93056
H 0.768358 1.66234 3.9866
H 0.0988572 2.97107 -0.0996245
H 0.749047 3.74176 -0.2104
H -0.0419852 3.66752 0.819663
H 0.742609 2.76944 0.805012
H 0.0922401 2.83152 1.51887
H 0.702895 3.70814 1.50509
H -0.0876977 3.9239 2.3044
H 0.704084 2.90524 2.27664
H -0.0286101 3.07192 2.91351
H 0.692074 3.7753 2.89502
H 0.0651926 3.69597 3.65058
H 0.824974 2.94843 3.75036
H 1.57504 -0.0294607 0.195789
H 2.2978 0.92804 0.0351023
H 1.47404 0.692151 0.735273
H 2.26119 -0.118097 0.924872
H 1.59233 -0.0765744 1.37161
H 2.06431 0.756975 1.49784
H 1.51378 1.08965 2.27641
H 2.30678 0.152627 2.14554
H 1.61524 -0.0198627 2.91016
H 2.1559 0.714861 2.91365
H 1.42475 0.792874 3.84262
H 2.29552 0.115961 3.66461
H 1.61557 1.4671 -0.0887987
H 2.20678 2.31859 -0.104908
H 1.52225 2.14677 0.898762
H 2.40654 1.38189 0.846407
H 1.29872 1.54737 1.43609
H 2.39034 2.29647 1.45728
H 1.50085 2.12519 2.29265
H 2.17717 1.48269 2.23871
H 1.53494 1.47231 3.08915
H 2.2742 2.35553 3.12453
H 1.52025 2.2379 3.70185
H 2.30182 1.52628 3.56295
H 1.59815 2.96648 -0.0284442
H 2.37285 3.61963 -0.119224
H 1.5096 3.81355 0.696542
H 2.20696 2.83611 0.735286
H 1.5847 2.94365 1.57138
H 2.29491 3.75375 1.57256
H 1.4379 3.78011 2.32134
H 2.3586 3.00206 2.3039
H 1.50381 3.00417 3.00758
H 2.33111 3.75001 2.98588
H 1.45437 3.7917 3.79853
H 2.05315 2.98627 3.86683
H 3.05696 -0.0410938 -0.052495
H 3.7015 0.806611 0.118855
H 3.06317 0.796892 0.795699
H 3.77949 -0.000195709 0.846106
H 2.99982 -0.11282 1.38778
H 3.84267 0.668793 1.44806
H 3.04846 0.757467 2.15871
H 3.85507 0.00816641 2.13774
H 2.84394 -0.096442 2.87359
H 3.82843 0.797025 2.87765
H 2.96588 0.687758 3.70017
H 3.59092 -0.0727409 3.82596
H 3.02029 1.56154 0.0573122
H 3.63957 2.15428 0.0427751
H 2.95963 2.15947 0.839554
H 3.77145 1.7553 0.825178
H 2.98156 1.64787 1.75875
H 3.95133 2.26078 1.60873
H 2.88911 2.25303 2.42228
H 3.7313 1.58483 2.14322
H 3.10242 1.48264 3.00473
H 3.76437 2.30158 2.84523
H 3.07058 2.43294 3.68532
H 3.63776 1.51621 3.7946
H 2.9801 3.00017 0.134423
H 3.71355 3.63116 -0.000422582
H 2.9499 3.79537 0.735877
H 3.83508 3.10614 0.574988
H 2.95328 3.06561 1.3851
H 3.73594 3.72175 1.35025
H 2.89987 3.56672 2.27004
H 3.78547 2.79456 2.03644
H 2.82707 2.88614 2.90828
H 3.65564 3.60722 2.8687
H 3.13895 3.74025 3.82354
H 3.88913 2.8839 4.00312
108
Step: 30, PE = 4121.3, KE = 11565.1
H 0.0499268 -0.0359405 -0.173604
H 0.701053 0.746893 -0.0253507
H -0.0654209 0.534406 0.972372
H 0.597321 0.0345744 0.829907
H -0.0125426 -0.183954 1.48306
H 0.586749 0.737834 1.32163
H -0.0884322 0.834937 2.20728
H 0.65956 0.130445 2.25091
H -0.216543 -0.0997406 3.07909
H 0.494263 0.789172 3.16591
H -0.0504846 0.756186 3.66147
H 0.960275 -0.0140738 3.94582
H 0.0698915 1.70435 0.214868
H 0.718315 2.56067 0.159641
H -0.0239569 2.4587 0.562899
H 0.687941 1.45764 0.505749
H 0.205651 1.38038 1.6571
H 0.524014 2.22138 1.4446
H 0.329768 2.32173 2.33957
H 0.703312 1.49444 2.25506
H 0.0156192 1.62177 2.92256
H 0.79262 2.29141 2.97549
H -0.0412734 2.41701 3.97822
H 0.780516 1.74683 4.10247
H 0.161628 3.01087 -0.0999978
H 0.74471 3.72012 -0.310462
H -0.0608964 3.63604 0.854363
H 0.75259 2.71711 0.929266
H 0.104131 2.7978 1.5432
H 0.680732 3.69277 1.50729
H -0.126258 4.00057 2.34185
H 0.720168 2.92101 2.28678
H -0.0481541 3.10587 2.87292
H 0.664568 3.78591 2.857
H 0.0951133 3.66475 3.59256
H 0.853753 2.91749 3.74631
H 1.61703 -0.033227 0.280326
H 2.31185 1.01625 0.0593066
H 1.46005 0.668462 0.735589
H 2.27491 -0.163193 0.989979
H 1.62114 -0.123229 1.31775
H 1.96801 0.754408 1.49624
H 1.48362 1.22665 2.29018
H 2.33853 0.237078 2.10247
H 1.67528 -0.025775 2.86997
H 2.10673 0.697939 2.88555
H 1.38926 0.80474 3.88696
H 2.31392 0.182883 3.62042
H 1.67575 1.45461 -0.131878
H 2.1979 2.34392 -0.152568
H 1.53641 2.0986 0.969564
H 2.48532 1.33887 0.897077
H 1.19451 1.5631 1.41211
H 2.44675 2.32315 1.4486
H 1.50666 2.07098 2.31464
H 2.17119 1.47826 2.22652
H 1.54938 1.45743 3.13249
H 2.27557 2.3934 3.19814
H 1.54638 2.23038 3.67672
H 2.3369 1.53685 3.45919
H 1.60943 2.94897 0.00398085
H 2.41556 3.56803 -0.165061
H 1.50864 3.83256 0.664888
H 2.17743 2.76651 0.725011
H 1.61899 2.90899 1.61382
H 2.30954 3.74968 1.62458
H 1.41031 3.79309 2.34394
H 2.36651 2.98378 2.29557
H 1.5075 2.99633 3.00705
H 2.35732 3.75282 2.98462
H 1.4397 3.81126 3.82893
H 1.97058 2.98488 3.88337
H 3.07274 -0.0504462 -0.0535301
H 3.68928 0.838431 0.1745
H 3.0928 0.808728 0.82354
H 3.80184 -0.00397964 0.901199
H 3.01408 -0.165966 1.35092
H 3.88086 0.638436 1.42781
H 3.07372 0.761937 2.11975
H 3.89416 0.0179622 2.07901
H 2.77491 -0.132161 2.81357
H 3.87355 0.814871 2.82414
H 2.94476 0.652949 3.68063
H 3.53241 -0.103426 3.84396
H 3.02974 1.59217 0.093487
H 3.59518 2.11669 0.0638669
H 2.95838 2.11955 0.879484
H 3.79019 1.87642 0.868006
H 2.96738 1.73248 1.88214
H 4.07139 2.18685 1.60708
H 2.83557 2.22195 2.5051
H 3.74112 1.61462 2.10539
H 3.13901 1.47105 3.01023
H 3.7754 2.31579 2.76222
H 3.10281 2.52697 3.66215
H 3.59018 1.52496 3.81406
H 2.97464 2.99667 0.201365
H 3.68606 3.60035 -0.0198302
H 2.93063 3.81375 0.730841
H 3.87477 3.13761 0.513965
H 2.93308 3.11316 1.32565
H 3.72254 3.70376 1.27536
H 2.87561 3.50423 2.26602
H 3.78152 2.77451 1.97343
H 2.77977 2.86303 2.90436
H 3.60842 3.53994 2.81561
H 3.20085 3.71812 3.85138
H 3.88931 2.8648 4.12442
108
Step: 40, PE = 4125.08, KE = 11877
H 0.0647589 -0.0584248 -0.237918
H 0.688338 0.731303 -0.0463271
H -0.0620137 0.460203 0.974631
H 0.54553 0.0250943 0.853871
H -0.00862073 -0.247978 1.48936
H 0.579416 0.742506 1.28301
H -0.112048 0.862929 2.19408
H 0.630522 0.183063 2.25297
H -0.296063 -0.122428 3.10835
H 0.454506 0.801593 3.18152
H -0.116767 0.767838 3.68434
H 1.04065 0.00827189 4.01143
H 0.0517477 1.7801 0.247942
H 0.758815 2.59089 0.115234
H -0.0495276 2.54402 0.525924
H 0.724734 1.41979 0.470169
H 0.259121 1.35439 1.69205
H 0.507913 2.1001 1.43837
H 0.355545 2.2604 2.35293
H 0.692479 1.50339 2.27852
H 0.0222132 1.65312 2.89679
H 0.820679 2.30756 2.98605
H -0.00511921 2.33951 3.99398
H 0.794535 1.82306 4.20835
H 0.216489 3.11152 -0.0753945
H 0.726687 3.69252 -0.39402
H -0.0682274 3.61122 0.884628
H 0.776386 2.69767 1.06144
H 0.080145 2.82466 1.57676
H 0.659623 3.67367 1.51374
H -0.134423 4.04097 2.38827
H 0.784228 3.00688 2.29776
H -0.0724483 3.14006 2.83225
H 0.628545 3.8037 2.83346
H 0.120075 3.63828 3.52945
H 0.88835 2.88878 3.73829
H 1.66698 -0.0104081 0.336095
H 2.33496 1.08982 0.0897885
H 1.44466 0.646963 0.744943
H 2.32439 -0.200697 1.0193
H 1.60251 -0.158428 1.29315
H 1.87879 0.761623 1.49915
H 1.4145 1.31965 2.31244
H 2.37192 0.319268 2.06395
H 1.71594 -0.0355332 2.82857
H 2.05775 0.686884 2.86925
H 1.35247 0.808984 3.93131
H 2.31469 0.236666 3.56922
H 1.71875 1.46153 -0.180945
H 2.18796 2.36334 -0.192104
H 1.57141 2.07449 1.01183
H 2.54974 1.29962 0.944993
H 1.08647 1.55726 1.39729
H 2.48605 2.35106 1.46313
H 1.5174 2.04016 2.34239
H 2.2043 1.4903 2.22104
H 1.56329 1.44337 3.17385
H 2.25602 2.40921 3.2911
H 1.56869 2.22022 3.65601
H 2.37228 1.55449 3.35676
H 1.57927 2.9407 0.100833
H 2.45546 3.52627 -0.209275
H 1.50405 3.80355 0.647775
H 2.13648 2.69239 0.716792
H 1.65718 2.87679 1.65256
H 2.3157 3.75105 1.69196
H 1.38591 3.80345 2.36885
H 2.30932 2.93184 2.24371
H 1.50571 2.9952 3.00458
H 2.36217 3.73806 2.98487
H 1.45392 3.82049 3.8513
H 1.90429 2.99578 3.82272
H 3.0615 -0.0498032 -0.0388276
H 3.68131 0.864057 0.233937
H 3.13602 0.798232 0.848299
H 3.81537 -0.0118813 0.941025
H 3.04279 -0.212289 1.34336
H 3.87267 0.623671 1.45168
H 3.09804 0.760936 2.0836
H 3.91205 0.0487173 2.01358
H 2.72745 -0.137333 2.74644
H 3.91567 0.834935 2.78363
H 2.94474 0.626864 3.66881
H 3.51853 -0.105934 3.83518
H 3.01021 1.60364 0.128664
H 3.56406 2.10024 0.0815485
H 2.97054 2.08238 0.907542
H 3.8139 1.98343 0.911657
H 2.94584 1.80966 1.97437
H 4.20138 2.07095 1.56669
H 2.78341 2.16602 2.59108
H 3.75657 1.63372 2.07279
H 3.17977 1.45736 3.01939
H 3.79536 2.33525 2.67964
H 3.13314 2.61887 3.64565
H 3.54002 1.53684 3.84208
H 2.9696 3.00242 0.26538
H 3.65807 3.61655 -0.0600697
H 2.91306 3.82605 0.722007
H 3.92078 3.12702 0.497421
H 2.9111 3.15568 1.2592
H 3.7031 3.69093 1.2123
H 2.88991 3.49146 2.26123
H 3.7629 2.8004 1.93699
H 2.78992 2.8918 2.94017
H 3.55744 3.47711 2.76256
H 3.23384 3.66974 3.86238
H 3.83125 2.87523 4.24561
108
Step: 50, PE = 5079.14, KE = 10892.7
H 0.0773683 -0.0843018 -0.30878
H 0.674005 0.712292 -0.0539221
H -0.0653555 0.412253 0.947977
H 0.526563 -0.0180539 0.860139
H 0.00314051 -0.311799 1.49858
H 0.619018 0.761468 1.25946
H -0.124186 0.878095 2.16679
H 0.59778 0.235173 2.25826
H -0.383058 -0.146662 3.15848
H 0.451547 0.807788 3.18199
H -0.210108 0.773133 3.73759
H 1.11995 0.0472619 4.0749
H 0.017778 1.85571 0.273543
H 0.826115 2.60029 0.0892791
H -0.0568874 2.6231 0.507025
H 0.782704 1.37749 0.448543
H 0.278137 1.31704 1.69735
H 0.484419 1.9808 1.43114
H 0.354721 2.19858 2.34362
H 0.662138 1.5264 2.34066
H 0.0242065 1.67827 2.87676
H 0.860172 2.32413 3.02104
H 0.0360589 2.25523 4.00982
H 0.81843 1.89448 4.28863
H 0.254001 3.23005 -0.047141
H 0.709367 3.66528 -0.460752
H -0.0572265 3.59208 0.905293
H 0.812085 2.71357 1.17267
H 0.0536099 2.86921 1.61268
H 0.646548 3.66186 1.52038
H -0.117167 4.05498 2.43729
H 0.85557 3.09461 2.30278
H -0.0995569 3.1687 2.78651
H 0.596086 3.83828 2.80243
H 0.139016 3.62461 3.46538
H 0.931081 2.85653 3.71813
H 1.71858 0.017034 0.363761
H 2.37854 1.13927 0.130292
H 1.4192 0.638174 0.758985
H 2.36082 -0.229626 1.03648
H 1.55335 -0.191189 1.27452
H 1.78712 0.76948 1.49887
H 1.36609 1.34523 2.33235
H 2.40163 0.386796 2.0191
H 1.74473 -0.0593669 2.7866
H 2.0185 0.697324 2.85644
H 1.31756 0.821019 3.95997
H 2.2899 0.26227 3.5099
H 1.74271 1.49387 -0.240249
H 2.18518 2.37886 -0.223969
H 1.60701 2.05982 1.04207
H 2.59803 1.27214 0.995478
H 0.998595 1.51343 1.39096
H 2.50725 2.39128 1.50155
H 1.54667 2.06812 2.37985
H 2.25191 1.51379 2.22449
H 1.57586 1.42669 3.21889
H 2.24217 2.42735 3.37949
H 1.56344 2.21055 3.64483
H 2.40881 1.56924 3.25704
H 1.53566 2.9438 0.215135
H 2.49863 3.48334 -0.25595
H 1.4942 3.7416 0.63408
H 2.0939 2.62257 0.707204
H 1.69141 2.83972 1.68841
H 2.31458 3.75687 1.75716
H 1.37305 3.80856 2.39124
H 2.24126 2.86784 2.18847
H 1.49907 3.00284 3.00534
H 2.34503 3.68932 2.99382
H 1.50025 3.82487 3.85579
H 1.83762 3.02087 3.75203
H 3.02756 -0.0475489 -0.000844788
H 3.67345 0.899886 0.28183
H 3.18659 0.773693 0.879132
H 3.8156 -0.0307565 0.961478
H 3.09306 -0.233399 1.35979
H 3.83297 0.63784 1.49307
H 3.12952 0.75523 2.04271
H 3.9092 0.0855027 1.95195
H 2.70663 -0.115454 2.67751
H 3.93228 0.862611 2.77428
H 2.97919 0.622662 3.66795
H 3.53003 -0.0804658 3.79517
H 2.9709 1.59443 0.176271
H 3.56155 2.10893 0.0968585
H 2.99006 2.04143 0.930167
H 3.83208 2.08934 0.934447
H 2.93781 1.85751 2.02277
H 4.31202 1.95123 1.54537
H 2.71744 2.1244 2.71286
H 3.77007 1.64068 2.0349
H 3.21662 1.45129 3.02864
H 3.82134 2.34747 2.59895
H 3.16303 2.70168 3.64137
H 3.48951 1.55221 3.8696
H 2.96622 3.00438 0.326499
H 3.66334 3.66864 -0.0692901
H 2.89842 3.8328 0.688247
H 3.94877 3.11652 0.510259
H 2.89458 3.19013 1.19944
H 3.67425 3.68077 1.15778
H 2.92588 3.49354 2.2458
H 3.74268 2.82866 1.90449
H 2.81344 2.95534 2.97384
H 3.52063 3.42711 2.71158
H 3.22114 3.60186 3.81237
H 3.77016 2.86391 4.34129
108
Step: 60, PE = 5369.72, KE = 10523.2
H 0.0893022 -0.115668 -0.376093
H 0.64715 0.682689 -0.0604308
H -0.0891346 0.407953 0.922009
H 0.553445 -0.0928517 0.851115
H 0.00649087 -0.373024 1.51515
H 0.670495 0.772184 1.23622
H -0.132033 0.867244 2.14099
H 0.56531 0.291879 2.26261
H -0.475886 -0.167325 3.20186
H 0.459816 0.805092 3.1853
H -0.304763 0.76331 3.79365
H 1.19054 0.0714455 4.14678
H -0.0234712 1.91407 0.297845
H 0.872204 2.61652 0.0839172
H -0.00368207 2.65597 0.49293
H 0.839846 1.33664 0.444536
H 0.283005 1.25261 1.69172
H 0.517694 1.96999 1.3943
H 0.332912 2.20173 2.31724
H 0.614924 1.51053 2.41708
H 0.0134126 1.69616 2.87682
H 0.901162 2.33504 3.05328
H 0.0779444 2.18082 4.02138
H 0.843132 1.93025 4.34412
H 0.26758 3.34455 0.00296454
H 0.715689 3.6603 -0.531411
H -0.0187583 3.56727 0.922789
H 0.856223 2.74133 1.26971
H 0.0264228 2.91792 1.66053
H 0.636723 3.63947 1.52572
H -0.0969964 4.0593 2.46838
H 0.929013 3.18236 2.30678
H -0.121652 3.19103 2.71792
H 0.569367 3.87994 2.77553
H 0.137771 3.62171 3.4139
H 0.962541 2.83225 3.69683
H 1.77867 0.0353693 0.379196
H 2.39785 1.15934 0.179196
H 1.39024 0.632196 0.768754
H 2.36591 -0.233626 1.05215
H 1.48972 -0.211657 1.2654
H 1.6857 0.786714 1.50406
H 1.37177 1.30676 2.34606
H 2.41345 0.456788 1.96929
H 1.77375 -0.086402 2.74035
H 1.98115 0.722733 2.83517
H 1.29339 0.84709 3.97253
H 2.25678 0.27804 3.45336
H 1.75665 1.53807 -0.29467
H 2.18578 2.39866 -0.252365
H 1.62962 2.04337 1.08196
H 2.63008 1.25622 1.06219
H 1.00934 1.40995 1.37852
H 2.52759 2.43407 1.53936
H 1.58804 2.14408 2.42625
H 2.28433 1.52623 2.23611
H 1.58365 1.40418 3.26778
H 2.25883 2.43989 3.45556
H 1.52119 2.19182 3.64338
H 2.44816 1.55816 3.18161
H 1.49201 2.9604 0.326808
H 2.52585 3.44808 -0.300778
H 1.49036 3.66764 0.625964
H 2.06615 2.55832 0.697675
H 1.68026 2.80252 1.69293
H 2.30173 3.77406 1.82091
H 1.3639 3.81116 2.39919
H 2.20071 2.8061 2.1736
H 1.49114 3.01238 2.99449
H 2.31866 3.63446 3.01643
H 1.55239 3.82227 3.84764
H 1.77955 3.05071 3.69732
H 2.99204 -0.0469563 0.0357916
H 3.68191 0.947413 0.314757
H 3.23458 0.73774 0.92693
H 3.80055 -0.0614917 0.975958
H 3.14874 -0.240103 1.40547
H 3.79 0.71379 1.49447
H 3.16896 0.75176 2.00209
H 3.89072 0.0924978 1.94068
H 2.69474 -0.0985028 2.61117
H 3.9242 0.881074 2.80214
H 3.0431 0.629146 3.67113
H 3.55187 -0.0485471 3.76395
H 2.97212 1.59181 0.234009
H 3.57467 2.12002 0.116456
H 3.00326 2.00366 0.954221
H 3.8454 2.19412 0.94722
H 2.95828 1.89157 2.03724
H 4.30958 1.83951 1.55422
H 2.65244 2.10675 2.8383
H 3.77583 1.63798 2.01154
H 3.26479 1.44011 3.02487
H 3.8404 2.35277 2.5245
H 3.18916 2.77869 3.65823
H 3.44845 1.56369 3.89779
H 2.95967 3.00488 0.377775
H 3.69008 3.7404 -0.0478333
H 2.88877 3.8244 0.62433
H 3.9136 3.16984 0.555889
H 2.88353 3.21308 1.15085
H 3.63456 3.66377 1.11398
H 2.95604 3.50799 2.21595
H 3.71914 2.86182 1.87065
H 2.83412 3.02928 2.99334
H 3.52264 3.38363 2.68207
H 3.18936 3.53556 3.72577
H 3.69584 2.84101 4.38984
108
Step: 70, PE = 5047.87, KE = 11234.6
H 0.103385 -0.153918 -0.443647
H 0.604835 0.643607 -0.0598502
H -0.0966368 0.429424 0.88452
H 0.5909 -0.16706 0.836078
H 0.00260798 -0.416529 1.54481
H 0.698361 0.721001 1.18652
H -0.166606 0.817881 2.14365
H 0.536446 0.353329 2.26637
H -0.541211 -0.19562 3.19875
H 0.474747 0.797317 3.18479
H -0.399331 0.74985 3.84144
H 1.2607 0.0772592 4.21636
H -0.0690286 1.93164 0.321259
H 0.87755 2.67363 0.087441
H 0.0711357 2.69705 0.473018
H 0.903023 1.30054 0.446458
H 0.314579 1.19459 1.66728
H 0.599643 2.02212 1.34772
H 0.294552 2.25687 2.28144
H 0.588126 1.4553 2.49678
H -0.0153541 1.70895 2.90763
H 0.930106 2.33268 3.07494
H 0.114666 2.10731 4.03015
H 0.875196 1.91083 4.37923
H 0.261038 3.45191 0.0664024
H 0.751955 3.6717 -0.611896
H 0.0454202 3.53647 0.93599
H 0.899498 2.77309 1.36427
H 0.00454789 2.96338 1.71524
H 0.6455 3.60658 1.53593
H -0.0943584 4.06812 2.46341
H 0.986449 3.23864 2.31431
H -0.134678 3.20973 2.64344
H 0.578339 3.92038 2.75392
H 0.116402 3.6087 3.37216
H 0.975125 2.81475 3.69006
H 1.85164 0.0515226 0.374045
H 2.36493 1.14078 0.224836
H 1.35772 0.625185 0.767955
H 2.34609 -0.239949 1.08177
H 1.41537 -0.226804 1.26999
H 1.59358 0.809766 1.52808
H 1.40691 1.25019 2.3425
H 2.40821 0.530488 1.92395
H 1.80271 -0.105878 2.6886
H 1.94341 0.754312 2.79838
H 1.28187 0.897545 3.97197
H 2.22507 0.291659 3.40891
H 1.76877 1.58142 -0.351788
H 2.19055 2.41885 -0.25389
H 1.64964 2.00883 1.14464
H 2.64971 1.22922 1.14277
H 1.09678 1.32525 1.37111
H 2.55207 2.47944 1.57327
H 1.63409 2.22653 2.46857
H 2.2923 1.53481 2.24671
H 1.58675 1.36925 3.31207
H 2.2962 2.45373 3.51286
H 1.46493 2.15746 3.64714
H 2.45001 1.45005 3.16681
H 1.4583 2.95933 0.425711
H 2.54432 3.42011 -0.348187
H 1.49246 3.62314 0.62896
H 2.06853 2.51124 0.676686
H 1.61228 2.77597 1.64547
H 2.27564 3.79517 1.87759
H 1.37342 3.8271 2.38583
H 2.22248 2.75792 2.22327
H 1.47821 3.0131 2.94265
H 2.27583 3.59835 3.03673
H 1.61377 3.83636 3.83567
H 1.7325 3.07506 3.68308
H 2.95606 -0.0298937 0.0638388
H 3.70772 1.00032 0.32791
H 3.26168 0.685278 0.975373
H 3.78798 -0.0911265 0.974737
H 3.17803 -0.247715 1.47663
H 3.76898 0.813133 1.47864
H 3.19948 0.750615 1.98203
H 3.86548 0.0735492 1.94936
H 2.69024 -0.07874 2.54746
H 3.90346 0.903645 2.84398
H 3.10573 0.648502 3.66931
H 3.55162 -0.0165815 3.77988
H 3.01433 1.60849 0.294468
H 3.59432 2.11239 0.141299
H 3.02582 1.97198 0.990512
H 3.85905 2.30997 0.957599
H 3.00419 1.92623 2.04373
H 4.26776 1.74995 1.53454
H 2.63496 2.17751 2.8954
H 3.75065 1.61903 2.0239
H 3.32832 1.42642 3.01627
H 3.85672 2.35463 2.461
H 3.2278 2.80372 3.68992
H 3.42115 1.57148 3.93144
H 2.94488 2.98696 0.414502
H 3.7107 3.81568 -0.0176279
H 2.88453 3.80481 0.542609
H 3.85202 3.22223 0.607775
H 2.86837 3.22479 1.1353
H 3.59379 3.65062 1.09759
H 2.96095 3.52909 2.1621
H 3.68609 2.89277 1.83406
H 2.85829 3.08937 3.00378
H 3.56654 3.33491 2.67944
H 3.17087 3.52103 3.63629
H 3.62449 2.82744 4.39913
108
Step: 80, PE = 4360.88, KE = 11634
H 0.1161 -0.190464 -0.512317
H 0.546509 0.60316 -0.05697
H -0.0964724 0.463771 0.849788
H 0.634649 -0.235226 0.818485
H -0.0113478 -0.447206 1.5849
H 0.69215 0.616735 1.1255
H -0.209531 0.758134 2.15912
H 0.52486 0.401208 2.26525
H -0.577608 -0.241539 3.15186
H 0.496464 0.79203 3.19344
H -0.485778 0.744588 3.88363
H 1.33483 0.0742996 4.27947
H -0.117279 1.91859 0.339657
H 0.839333 2.72662 0.0758775
H 0.145442 2.7657 0.452925
H 0.963214 1.26359 0.453566
H 0.368501 1.1513 1.64095
H 0.691277 2.0673 1.2979
H 0.255263 2.31496 2.24365
H 0.577678 1.38596 2.55989
H -0.0714963 1.71852 2.94926
H 0.937638 2.31306 3.07139
H 0.142838 2.04054 4.03319
H 0.919022 1.87759 4.40844
H 0.256951 3.56651 0.126911
H 0.799406 3.68868 -0.694802
H 0.108222 3.50181 0.946033
H 0.904381 2.8144 1.44937
H -0.0181338 3.00402 1.77866
H 0.675053 3.57474 1.55548
H -0.119132 4.08341 2.44116
H 1.00256 3.22026 2.30505
H -0.13431 3.22681 2.56189
H 0.619684 3.95402 2.73984
H 0.0821267 3.59666 3.31989
H 0.955153 2.81744 3.70328
H 1.92595 0.0670903 0.353705
H 2.31678 1.11393 0.259809
H 1.34515 0.611275 0.743861
H 2.32589 -0.246463 1.11236
H 1.33806 -0.24457 1.27652
H 1.56872 0.789296 1.57851
H 1.44492 1.20091 2.32318
H 2.38851 0.599986 1.87638
H 1.84815 -0.103733 2.64584
H 1.90577 0.779528 2.75532
H 1.27152 0.952541 3.97421
H 2.19261 0.290212 3.37839
H 1.79752 1.61779 -0.402522
H 2.19348 2.44336 -0.21295
H 1.66137 1.96473 1.21323
H 2.65124 1.20617 1.22659
H 1.16889 1.32591 1.35377
H 2.58176 2.52343 1.58362
H 1.65978 2.29824 2.51911
H 2.28674 1.54222 2.26375
H 1.59519 1.33188 3.35193
H 2.33904 2.482 3.54911
H 1.41899 2.11855 3.65889
H 2.43809 1.30798 3.16522
H 1.44759 2.89752 0.509003
H 2.55054 3.39016 -0.395612
H 1.50873 3.6699 0.662619
H 2.09256 2.45723 0.652113
H 1.57872 2.75397 1.59951
H 2.23242 3.8144 1.91379
H 1.41458 3.88797 2.3554
H 2.25931 2.72828 2.29152
H 1.46928 3.01061 2.87632
H 2.21064 3.58441 3.05269
H 1.68118 3.8656 3.82639
H 1.70777 3.08871 3.69118
H 2.91278 0.00380426 0.0756392
H 3.74316 1.04173 0.335695
H 3.25203 0.616541 0.997977
H 3.77693 -0.108709 0.968888
H 3.18542 -0.244063 1.56619
H 3.81017 0.928267 1.47588
H 3.21218 0.743281 1.98349
H 3.84344 0.0442532 1.95837
H 2.69449 -0.0542105 2.48262
H 3.88949 0.918838 2.89759
H 3.16887 0.675448 3.66809
H 3.5377 0.00847125 3.83893
H 3.04754 1.61176 0.347354
H 3.62513 2.08243 0.17253
H 3.03999 1.95871 1.0378
H 3.8785 2.43247 0.963155
H 3.04357 1.96323 2.05769
H 4.25052 1.68317 1.46794
H 2.63851 2.25851 2.91542
H 3.6999 1.58047 2.08075
H 3.38185 1.42315 3.00541
H 3.86603 2.35413 2.40088
H 3.26509 2.74837 3.73036
H 3.40345 1.57423 3.96606
H 2.92647 2.95773 0.421256
H 3.7274 3.88903 0.0121574
H 2.88062 3.80147 0.453804
H 3.81895 3.22095 0.608943
H 2.8454 3.23781 1.16581
H 3.53054 3.66807 1.15749
H 2.96348 3.54563 2.10228
H 3.6416 2.93336 1.78959
H 2.88161 3.12792 3.00066
H 3.60723 3.2942 2.68294
H 3.16494 3.5782 3.55071
H 3.57064 2.82934 4.39237
108
Step: 90, PE = 4609.87, KE = 11266.8
H 0.124324 -0.225478 -0.580862
H 0.494392 0.556317 -0.0533284
H -0.0979755 0.497382 0.815301
H 0.675985 -0.292242 0.790355
H -0.0247688 -0.465749 1.61938
H 0.659619 0.502067 1.07433
H -0.25622 0.703366 2.17802
H 0.5316 0.438969 2.25601
H -0.604743 -0.289298 3.09716
H 0.522451 0.788503 3.20325
H -0.556768 0.753091 3.93172
H 1.4104 0.0750348 4.33001
H -0.153605 1.88583 0.359047
H 0.791663 2.7664 0.0415036
H 0.188168 2.83154 0.436769
H 1.01066 1.22944 0.45931
H 0.425747 1.12807 1.62084
H 0.780964 2.0973 1.23898
H 0.212493 2.37166 2.20364
H 0.581988 1.30894 2.60634
H -0.137495 1.7314 2.98735
H 0.926665 2.28901 3.04138
H 0.164594 1.97423 4.0237
H 0.964482 1.84558 4.42581
H 0.258244 3.68786 0.174629
H 0.858034 3.70296 -0.769506
H 0.164771 3.47322 0.965471
H 0.830077 2.86045 1.51817
H -0.0414709 3.03969 1.82003
H 0.706563 3.56848 1.59068
H -0.153269 4.09709 2.42465
H 0.983467 3.18257 2.27252
H -0.104174 3.24792 2.48954
H 0.672783 3.99753 2.73732
H 0.0507459 3.58944 3.27519
H 0.916464 2.82906 3.73917
H 2.00615 0.0804157 0.33494
H 2.26634 1.07117 0.293789
H 1.36572 0.588871 0.706276
H 2.31301 -0.241169 1.1432
H 1.26387 -0.265293 1.29387
H 1.60405 0.699572 1.65896
H 1.46196 1.16963 2.28291
H 2.35992 0.673213 1.83733
H 1.93013 -0.0749404 2.61668
H 1.88602 0.783708 2.72092
H 1.26216 0.988849 3.9958
H 2.16752 0.282159 3.36068
H 1.8529 1.64396 -0.415556
H 2.19542 2.46822 -0.136137
H 1.68126 1.9304 1.27646
H 2.64786 1.1794 1.31321
H 1.17861 1.38507 1.30913
H 2.59891 2.55731 1.5866
H 1.66399 2.34678 2.5623
H 2.28526 1.54366 2.28695
H 1.60037 1.29637 3.36115
H 2.37199 2.52419 3.58213
H 1.37914 2.0889 3.66846
H 2.42756 1.17559 3.16161
H 1.44934 2.82768 0.593985
H 2.5524 3.3601 -0.433109
H 1.52528 3.75549 0.708755
H 2.1367 2.39176 0.632551
H 1.64509 2.73386 1.57779
H 2.1794 3.83285 1.94167
H 1.44066 3.93491 2.29971
H 2.31381 2.73451 2.36133
H 1.46739 3.00689 2.83357
H 2.12434 3.57672 3.05973
H 1.74703 3.91707 3.81731
H 1.70765 3.08811 3.70367
H 2.86455 0.0518019 0.0795884
H 3.77369 1.07026 0.340002
H 3.22252 0.537626 1.00655
H 3.77513 -0.106329 0.943085
H 3.16924 -0.221184 1.66805
H 3.87178 1.03575 1.46845
H 3.2218 0.740481 1.99956
H 3.82805 0.0184253 1.96905
H 2.71415 -0.0332302 2.42129
H 3.90693 0.891474 2.9543
H 3.21358 0.713801 3.66571
H 3.528 0.00909441 3.91422
H 3.06424 1.59575 0.382476
H 3.65634 2.05454 0.196211
H 3.04958 1.95166 1.10815
H 3.90957 2.54755 0.983684
H 3.0575 2.01118 2.07444
H 4.23789 1.64035 1.39407
H 2.66614 2.31566 2.9001
H 3.6713 1.51994 2.14426
H 3.39627 1.4555 3.01471
H 3.8748 2.3619 2.35278
H 3.2727 2.67743 3.73489
H 3.38429 1.57306 3.99786
H 2.90386 2.92514 0.418622
H 3.74316 3.96399 0.0408693
H 2.86836 3.80327 0.368211
H 3.79862 3.19514 0.577182
H 2.80977 3.2658 1.21224
H 3.4744 3.68435 1.23678
H 2.9845 3.5579 2.03253
H 3.59256 2.97212 1.73889
H 2.88631 3.14403 2.9823
H 3.63727 3.25328 2.68123
H 3.16765 3.65936 3.47608
H 3.54107 2.85064 4.40949
108
Step: 100, PE = 4860.38, KE = 10963.9
H 0.138817 -0.26238 -0.642937
H 0.45556 0.506102 -0.0463757
H -0.118003 0.541474 0.774074
H 0.695587 -0.342525 0.744834
H -0.0436713 -0.488797 1.64339
H 0.632385 0.387885 1.03448
H -0.294755 0.655835 2.19434
H 0.545816 0.469735 2.2475
H -0.642772 -0.329256 3.04499
H 0.545887 0.780559 3.23144
H -0.602228 0.758728 3.98757
H 1.46941 0.0785334 4.36822
H -0.138334 1.84773 0.398528
H 0.786624 2.79488 -0.014104
H 0.185039 2.88949 0.442417
H 1.04748 1.20857 0.466014
H 0.486485 1.12081 1.60008
H 0.860392 2.12605 1.17947
H 0.186838 2.42273 2.15854
H 0.588812 1.24548 2.63426
H -0.209454 1.74821 3.02358
H 0.902575 2.26454 3.00263
H 0.186882 1.90239 4.00326
H 1.00623 1.8143 4.4377
H 0.258135 3.80446 0.204111
H 0.920937 3.71475 -0.843114
H 0.213369 3.45045 1.00049
H 0.750692 2.8485 1.55662
H -0.0651774 3.05595 1.77063
H 0.735437 3.62447 1.62508
H -0.170021 4.11335 2.41298
H 0.942516 3.15132 2.23867
H -0.0604105 3.29253 2.49224
H 0.726251 4.03154 2.74261
H 0.0214748 3.59073 3.24736
H 0.874726 2.84274 3.768
H 2.10006 0.091502 0.334396
H 2.20979 1.02866 0.32115
H 1.41681 0.556312 0.670143
H 2.30264 -0.234673 1.17529
H 1.20613 -0.273417 1.34146
H 1.61566 0.595152 1.72645
H 1.4419 1.18686 2.21804
H 2.34244 0.729909 1.82538
H 2.02347 -0.0413663 2.59582
H 1.88823 0.74932 2.70486
H 1.24188 1.01001 4.03967
H 2.14711 0.273064 3.35141
H 1.92262 1.65759 -0.405791
H 2.20055 2.50573 -0.0699464
H 1.7281 1.91345 1.34582
H 2.65231 1.16411 1.37863
H 1.15697 1.41125 1.26036
H 2.60511 2.57606 1.58882
H 1.67163 2.34487 2.58085
H 2.28443 1.55197 2.32381
H 1.60647 1.27813 3.35589
H 2.39197 2.56059 3.62626
H 1.33962 2.06722 3.66724
H 2.42995 1.06144 3.16773
H 1.45069 2.76376 0.682937